/*--------------------------------*- C++ -*----------------------------------*\
| =========                 |                                                 |
| \\      /  F ield         | OpenFOAM: The Open Source CFD Toolbox           |
|  \\    /   O peration     | Version:  2.4.x                                 |
|   \\  /    A nd           | Web:      www.OpenFOAM.org                      |
|    \\/     M anipulation  |                                                 |
\*---------------------------------------------------------------------------*/
FoamFile
{
    version     2.0;
    format      ascii;
    class       volScalarField;
    location    "0/fuel";
    object      Q;
}
// * * * * * * * * * * * * * * * * * * * * * * * * * * * * * * * * * * * * * //

dimensions      [ 1 -1 -3 0 0 0 0 ];

internalField	nonuniform List<scalar>
181195
(
1880470.0
3595566.0
5180346.0
6659138.0
8042150.0
9335386.0
10540880.0
11658580.0
12686340.0
13620190.0
14455440.0
15187260.0
15811060.0
16323430.0
16722380.0
17006630.0
17175060.0
17226950.0
17162280.0
16981610.0
16685890.0
16276540.0
15755340.0
15124440.0
14387260.0
13548520.0
12613220.0
11585950.0
10470640.0
9269520.0
7982654.0
6607909.0
5139231.0
3566354.0
1864948.0
1932756.0
3643761.0
5254458.0
6756996.0
8161284.0
9474035.0
10697610.0
11832050.0
12875200.0
13823020.0
14670810.0
15413590.0
16046640.0
16566580.0
16971460.0
17259910.0
17430840.0
17483510.0
17417910.0
17234550.0
16934440.0
16519010.0
15990020.0
15349690.0
14601500.0
13750250.0
12801020.0
11758410.0
10626400.0
9407276.0
8100934.0
6705020.0
5212753.0
3614166.0
1916803.0
1990512.0
3667944.0
5281721.0
6791990.0
8204525.0
9525095.0
10755830.0
11896810.0
12945960.0
13899210.0
14751790.0
15498780.0
16135400.0
16658200.0
17065210.0
17355200.0
17527040.0
17579950.0
17513960.0
17329620.0
17027890.0
16610220.0
16078410.0
15434530.0
14682090.0
13825950.0
12871260.0
11822640.0
10684090.0
9457822.0
8143757.0
6739683.0
5239754.0
3638110.0
1974066.0
1894958.0
3604222.0
5191553.0
6673707.0
8059995.0
9356292.0
10564600.0
11684900.0
12715040.0
13651050.0
14488230.0
15221730.0
15846950.0
16360480.0
16760320.0
17045210.0
17214010.0
17266010.0
17201190.0
17020110.0
16723740.0
16313470.0
15791100.0
15158760.0
14419890.0
13579210.0
12641740.0
11612090.0
10494180.0
9290255.0
8000349.0
6622350.0
5150337.0
3574930.0
1879310.0
1808582.0
3555881.0
5134662.0
6600654.0
7970251.0
9250790.0
10444610.0
11551590.0
12569530.0
13494480.0
14321820.0
15046750.0
15664720.0
16172400.0
16567770.0
16849460.0
17016390.0
17067830.0
17003790.0
16824760.0
16531710.0
16126060.0
15609600.0
14984550.0
14254330.0
13423580.0
12497220.0
11479780.0
10375170.0
9185683.0
7911407.0
6549974.0
5093987.0
3527053.0
1793682.0
1909976.0
3630782.0
5237578.0
6735062.0
8134418.0
9442569.0
10661900.0
11792420.0
12831980.0
13776540.0
14621420.0
15361670.0
15992580.0
16510800.0
16914330.0
17201820.0
17372190.0
17424680.0
17359300.0
17176550.0
16877430.0
16463390.0
15936180.0
15298020.0
14552380.0
13704040.0
12758050.0
11719030.0
10590930.0
9376032.0
8074279.0
6683273.0
5196025.0
3601302.0
1894216.0
1647693.0
3415577.0
4950119.0
6361402.0
7678040.0
8909207.0
10057430.0
11122360.0
12101680.0
12991590.0
13787640.0
14485210.0
15080050.0
15568960.0
15949860.0
16221250.0
16382070.0
16431690.0
16370060.0
16197630.0
15915360.0
15524670.0
15027310.0
14425620.0
13722940.0
12923630.0
12032340.0
11053490.0
9990844.0
8846776.0
7621584.0
6312735.0
4911052.0
3388001.0
1634177.0
1985500.0
3657986.0
5263610.0
6767760.0
8175151.0
9491075.0
10717480.0
11854460.0
12899910.0
13849800.0
14699370.0
15443690.0
16078060.0
16599010.0
17004580.0
17293550.0
17464770.0
17517500.0
17451730.0
17268040.0
16967400.0
16551220.0
16021300.0
15379710.0
14629930.0
13776810.0
12825450.0
11780510.0
10645950.0
9423999.0
8114575.0
6715613.0
5221766.0
3628217.0
1969086.0
1903507.0
3621615.0
5222575.0
6715208.0
8110330.0
9414611.0
10630340.0
11757520.0
12794010.0
13735790.0
14578150.0
15316210.0
15945280.0
16461970.0
16864300.0
17150940.0
17320810.0
17373130.0
17307930.0
17125730.0
16827500.0
16414680.0
15889050.0
15252780.0
14509340.0
13663500.0
12720290.0
11684330.0
10559550.0
9348235.0
8050352.0
6663569.0
5181140.0
3592203.0
1887800.0
1969810.0
3650463.0
5254755.0
6756412.0
8161162.0
9474532.0
10698650.0
11833540.0
12877080.0
13825240.0
14673340.0
15416320.0
16049470.0
16569460.0
16974380.0
17262840.0
17433750.0
17486450.0
17420850.0
17237460.0
16937340.0
16521900.0
15992830.0
15352350.0
14603920.0
13752400.0
12802860.0
11759870.0
10627410.0
9407756.0
8100770.0
6704369.0
5212982.0
3620784.0
1953533.0
1630707.0
3399669.0
4930225.0
6335862.0
7646845.0
8872707.0
10016030.0
11076430.0
12051590.0
12937740.0
13730430.0
14425060.0
15017420.0
15504340.0
15883680.0
16153970.0
16314140.0
16363570.0
16302180.0
16130460.0
15849350.0
15460250.0
14964940.0
14365760.0
13666040.0
12870100.0
11982570.0
11007870.0
9949739.0
8810557.0
7590646.0
6287417.0
4891337.0
3372236.0
1617339.0
1785793.0
3537025.0
5108900.0
6567047.0
7929220.0
9202874.0
10390330.0
11491440.0
12503980.0
13424030.0
14247000.0
14968100.0
15582830.0
16087890.0
16481220.0
16761470.0
16927540.0
16978720.0
16915010.0
16736900.0
16445370.0
16041820.0
15528040.0
14906270.0
14179900.0
13353540.0
12432070.0
11420030.0
10321270.0
9138122.0
7870701.0
6516644.0
5068446.0
3508362.0
1771088.0
1795653.0
3546149.0
5121755.0
6583866.0
7949728.0
9226793.0
10417410.0
11521430.0
12536650.0
13459130.0
14284280.0
15007280.0
15623630.0
16129990.0
16524340.0
16805310.0
16971810.0
17023120.0
16959250.0
16780680.0
16488390.0
16083800.0
15568670.0
14945260.0
14216980.0
13388440.0
12464550.0
11449830.0
10348170.0
9161874.0
7891052.0
6533326.0
5081192.0
3517408.0
1780865.0
1884226.0
3612679.0
5212368.0
6702079.0
8094129.0
9395508.0
10608580.0
11733330.0
12767590.0
13707340.0
14547920.0
15284410.0
15912150.0
16427780.0
16829310.0
17115380.0
17284900.0
17337130.0
17272080.0
17090240.0
16792620.0
16380640.0
15856060.0
15221120.0
14479260.0
13635230.0
12694060.0
11660330.0
10537990.0
9329324.0
8034308.0
6650559.0
5171027.0
3583356.0
1868684.0
1679745.0
3447936.0
4992811.0
6416645.0
7745459.0
8987994.0
10146710.0
11221320.0
12209530.0
13107500.0
13910750.0
14614630.0
15214800.0
15708050.0
16092270.0
16366040.0
16528260.0
16578290.0
16516100.0
16342150.0
16057400.0
15663260.0
15161500.0
14554440.0
13845420.0
13038860.0
12139490.0
11151750.0
10079450.0
8924922.0
7688443.0
6367517.0
4953376.0
3420070.0
1665952.0
1945703.0
3653796.0
5269663.0
6777082.0
8185785.0
9502602.0
10729930.0
11867820.0
12914150.0
13864860.0
14715220.0
15460260.0
16095250.0
16616770.0
17022850.0
17312160.0
17483620.0
17536420.0
17470620.0
17286710.0
16985690.0
16569020.0
16038450.0
15396190.0
14645710.0
13791860.0
12839720.0
11793930.0
10658470.0
9435602.0
8125236.0
6724950.0
5227840.0
3624116.0
1929642.0
1968559.0
3652199.0
5258101.0
6760848.0
8166543.0
9480816.0
10705720.0
11841330.0
12885530.0
13834290.0
14682870.0
15426340.0
16059980.0
16580340.0
16985470.0
17274120.0
17445160.0
17497830.0
17432140.0
17248660.0
16948340.0
16532610.0
16003270.0
15362410.0
14613510.0
13761390.0
12811180.0
11767500.0
10634320.0
9413854.0
8106059.0
6708782.0
5216322.0
3622493.0
1952296.0
1794454.0
3537267.0
5104872.0
6561142.0
7922211.0
9194974.0
10381580.0
11481890.0
12493670.0
13413040.0
14235360.0
14955890.0
15570150.0
16074800.0
16467790.0
16747800.0
16913720.0
16964850.0
16901180.0
16723220.0
16431940.0
16028740.0
15515410.0
14894140.0
14168330.0
13342580.0
12421780.0
11410480.0
10312520.0
9130216.0
7863704.0
6510756.0
5064429.0
3508582.0
1779668.0
1857220.0
3584089.0
5167846.0
6643240.0
8022556.0
9312267.0
10514530.0
11629260.0
12654300.0
13585700.0
14418770.0
15148690.0
15770890.0
16281970.0
16679940.0
16963490.0
17131510.0
17183270.0
17118780.0
16938560.0
16643570.0
16235230.0
15715330.0
15086030.0
14350770.0
13514240.0
12581410.0
11556870.0
10444520.0
9246618.0
7963244.0
6592170.0
5126858.0
3554992.0
1841901.0
1916458.0
3617878.0
5209773.0
6697470.0
8089081.0
9390327.0
10603200.0
11727710.0
12761710.0
13701230.0
14541530.0
15277770.0
15905300.0
16420690.0
16821980.0
17107900.0
17277310.0
17329490.0
17264430.0
17082700.0
16785240.0
16373480.0
15849210.0
15214530.0
14472910.0
13629080.0
12688120.0
11654610.0
10532500.0
9324030.0
8029201.0
6645915.0
5168399.0
3588466.0
1900629.0
1943347.0
3651904.0
5266835.0
6773365.0
8181259.0
9497328.0
10723960.0
11861210.0
12906960.0
13857130.0
14707010.0
15451640.0
16086270.0
16607510.0
17013360.0
17302510.0
17473870.0
17526650.0
17460870.0
17277070.0
16976220.0
16559780.0
16029510.0
15387600.0
14637550.0
13784170.0
12832570.0
11787370.0
10652540.0
9430365.0
8120742.0
6721263.0
5225035.0
3622238.0
1927305.0
1775696.0
3530381.0
5100763.0
6556561.0
7916367.0
9187796.0
10373210.0
11472430.0
12483240.0
13401730.0
14223300.0
14943180.0
15556880.0
16061110.0
16453800.0
16733590.0
16899390.0
16950500.0
16886900.0
16709080.0
16418020.0
16015140.0
15502200.0
14881460.0
14156320.0
13331370.0
12411470.0
11401160.0
10304290.0
9123177.0
7857961.0
6506251.0
5060382.0
3501780.0
1761079.0
1908683.0
3612908.0
5203068.0
6688714.0
8078366.0
9377793.0
10588990.0
11711950.0
12744530.0
13682760.0
14521910.0
15257140.0
15883820.0
16398530.0
16799280.0
17084820.0
17254010.0
17306120.0
17241150.0
17059660.0
16762600.0
16351390.0
15827820.0
15194010.0
14453390.0
13610720.0
12671050.0
11638960.0
10518390.0
9311590.0
8018571.0
6637231.0
5161752.0
3583539.0
1892919.0
1912501.0
3628930.0
5233384.0
6729431.0
8127669.0
9434821.0
10653210.0
11782840.0
12821590.0
13765410.0
14609600.0
15349270.0
15979690.0
16497500.0
16900680.0
17187940.0
17358170.0
17410610.0
17345270.0
17162670.0
16863800.0
16450100.0
15923330.0
15285690.0
14540640.0
13692960.0
12747700.0
11709490.0
10582270.0
9368302.0
8067560.0
6677679.0
5191860.0
3599458.0
1896718.0
1841313.0
3581270.0
5169190.0
6645677.0
8025233.0
9315019.0
10517390.0
11632250.0
12657440.0
13588960.0
14422190.0
15152250.0
15774550.0
16285750.0
16683860.0
16967490.0
17135570.0
17187370.0
17122870.0
16942600.0
16647520.0
16239070.0
15719000.0
15089550.0
14354160.0
13517520.0
12584590.0
11559920.0
10447440.0
9249443.0
7965958.0
6594621.0
5128216.0
3552221.0
1826135.0
1752160.0
3511082.0
5075213.0
6523369.0
7875815.0
9140392.0
10319480.0
11412860.0
12418320.0
13331940.0
14149180.0
14865260.0
15475750.0
15977370.0
16368060.0
16646420.0
16811370.0
16862220.0
16798950.0
16622060.0
16332500.0
15931680.0
15421390.0
14803890.0
14082580.0
13261990.0
12346960.0
11342000.0
10250950.0
9076145.0
7817740.0
6473336.0
5035053.0
3482652.0
1737744.0
2029519.0
3687808.0
5308538.0
6827047.0
8247454.0
9575311.0
10812800.0
11960040.0
13014910.0
13973340.0
14830620.0
15581640.0
16221600.0
16747130.0
17156340.0
17447870.0
17620600.0
17673840.0
17607530.0
17422190.0
17118870.0
16699010.0
16164290.0
15516930.0
14760420.0
13899680.0
12939850.0
11885550.0
10740770.0
9507792.0
8186398.0
6774446.0
5266326.0
3657814.0
2012743.0
2029753.0
3687281.0
5307457.0
6825599.0
8245709.0
9573297.0
10810540.0
11957540.0
13012200.0
13970440.0
14827540.0
15578400.0
16218230.0
16743660.0
17152780.0
17444250.0
17616940.0
17670170.0
17603870.0
17418580.0
17115320.0
16695540.0
16160930.0
15513710.0
14757350.0
13896790.0
12937160.0
11883070.0
10738520.0
9505792.0
8184665.0
6773007.0
5265251.0
3657290.0
2012974.0
2031139.0
3690031.0
5312377.0
6832143.0
8253674.0
9582593.0
10821030.0
11969120.0
13024770.0
13983930.0
14841790.0
15593380.0
16233890.0
16759870.0
17169330.0
17461070.0
17633950.0
17687170.0
17620780.0
17435320.0
17131770.0
16711570.0
16176530.0
15528710.0
14771630.0
13910200.0
12949590.0
11894470.0
10748830.0
9514888.0
8192518.0
6779507.0
5270151.0
3660006.0
2014353.0
1837565.0
3570711.0
5150706.0
6621037.0
7995354.0
9280369.0
10478320.0
11589100.0
12610520.0
13538630.0
14368810.0
15096160.0
15716140.0
16225450.0
16622090.0
16904680.0
17072120.0
17123750.0
17059500.0
16879890.0
16585910.0
16178970.0
15660810.0
15033680.0
14301000.0
13467450.0
12537960.0
11517060.0
10408660.0
9215065.0
7936304.0
6570154.0
5109861.0
3541744.0
1822415.0
1780190.0
3533290.0
5104281.0
6561088.0
7921919.0
9194313.0
10380610.0
11480650.0
12492210.0
13411370.0
14233550.0
14953960.0
15568110.0
16072690.0
16465660.0
16745650.0
16911570.0
16962700.0
16899050.0
16721120.0
16429850.0
16026680.0
15513380.0
14892190.0
14166520.0
13340960.0
12420380.0
11409320.0
10311630.0
9129634.0
7863463.0
6510738.0
5063869.0
3504661.0
1765533.0
1694831.0
3461616.0
5010460.0
6439446.0
7773308.0
9020560.0
10183640.0
11262260.0
12254160.0
13155480.0
13961720.0
14668200.0
15270590.0
15765630.0
16151230.0
16425970.0
16588780.0
16638990.0
16576560.0
16401980.0
16116200.0
15720640.0
15217060.0
14607760.0
13896120.0
13086550.0
12183830.0
11192410.0
10116100.0
8957230.0
7716062.0
6390124.0
4970870.0
3433627.0
1680907.0
1836979.0
3578049.0
5164898.0
6640099.0
8018421.0
9307059.0
10508360.0
11622250.0
12646530.0
13577230.0
14409730.0
15139150.0
15760910.0
16271690.0
16669450.0
16952840.0
17120780.0
17172530.0
17108090.0
16927970.0
16633140.0
16225040.0
15705420.0
15076520.0
14341780.0
13505860.0
12573750.0
11549980.0
10438480.0
9241534.0
7959197.0
6589092.0
5123963.0
3549028.0
1821838.0
1882165.0
3597984.0
5184398.0
6664536.0
8048713.0
9343005.0
10549480.0
11668090.0
12696680.0
13631290.0
14467230.0
15199650.0
15823950.0
16336740.0
16736010.0
17020490.0
17189050.0
17240980.0
17176260.0
16995440.0
16699480.0
16289800.0
15768180.0
15136760.0
14398980.0
13559560.0
12623510.0
11595410.0
10479190.0
9277092.0
7989171.0
6613270.0
5143254.0
3568754.0
1866631.0
1712807.0
3476347.0
5029162.0
6463593.0
7802820.0
9055087.0
10222800.0
11305700.0
12301520.0
13206410.0
14015840.0
14725100.0
15329810.0
15826740.0
16213820.0
16489600.0
16653030.0
16703430.0
16640760.0
16465510.0
16178640.0
15781570.0
15276040.0
14664380.0
13949930.0
13137180.0
12230910.0
11235570.0
10154990.0
8991507.0
7745340.0
6414061.0
4989401.0
3448226.0
1698729.0
1681510.0
3449239.0
4994320.0
6418564.0
7747812.0
8990760.0
10149860.0
11224810.0
12213340.0
13111600.0
13915110.0
14619200.0
15219570.0
15712980.0
16097310.0
16371160.0
16533440.0
16583480.0
16521260.0
16347260.0
16062420.0
15668160.0
15166250.0
14559000.0
13849750.0
13042930.0
12143270.0
11155210.0
10082560.0
8927656.0
7690772.0
6369419.0
4954872.0
3421359.0
1667701.0
1751900.0
3504174.0
5061879.0
6505379.0
7854026.0
9115211.0
10291130.0
11381580.0
12384320.0
13295470.0
14110470.0
14824590.0
15433440.0
15933710.0
16323330.0
16600940.0
16765430.0
16816130.0
16753020.0
16576610.0
16287850.0
15888140.0
15379270.0
14763460.0
14044110.0
13225710.0
12313130.0
11310850.0
10222730.0
9051070.0
7796076.0
6455465.0
5021814.0
3475784.0
1737476.0
1933501.0
3644046.0
5255105.0
6757938.0
8162462.0
9475425.0
10699180.0
11833780.0
12877080.0
13825030.0
14672930.0
15415820.0
16048980.0
16569020.0
16973930.0
17262420.0
17433380.0
17486040.0
17420420.0
17237040.0
16936880.0
16521400.0
15992360.0
15351940.0
14603640.0
13752250.0
12802860.0
11760100.0
10627930.0
9408613.0
8102086.0
6705957.0
5213401.0
3614446.0
1917542.0
2002865.0
3669065.0
5279806.0
6789082.0
8201201.0
9521482.0
10751920.0
11892620.0
12941470.0
13894470.0
14746800.0
15493560.0
16129980.0
16652590.0
17059450.0
17349340.0
17521110.0
17574000.0
17508020.0
17323740.0
17022140.0
16604620.0
16073000.0
15429340.0
14677120.0
13821220.0
12866770.0
11818430.0
10680160.0
9454193.0
8140429.0
6736770.0
5237832.0
3639206.0
1986310.0
1977235.0
3661457.0
5273580.0
6781427.0
8191512.0
9509758.0
10738390.0
11877450.0
12924840.0
13876490.0
14727710.0
15473450.0
16108960.0
16630880.0
17037290.0
17326820.0
17498380.0
17551250.0
17485400.0
17301340.0
17000100.0
16583110.0
16052080.0
15409240.0
14658050.0
13803390.0
12850340.0
11803510.0
10666870.0
9442727.0
8130901.0
6729212.0
5231676.0
3631695.0
1960901.0
1658307.0
3427446.0
4966298.0
6382413.0
7703662.0
8939126.0
10091310.0
11159900.0
12142570.0
13035530.0
13834300.0
14534250.0
15131120.0
15621680.0
16003840.0
16276130.0
16437480.0
16487250.0
16425400.0
16252400.0
15969190.0
15577190.0
15078160.0
14474440.0
13769360.0
12967310.0
12072960.0
11090750.0
10024460.0
8876443.0
7646992.0
6333575.0
4927096.0
3399765.0
1644699.0
1636631.0
3404954.0
4936673.0
6344116.0
7656930.0
8884512.0
10029420.0
11091300.0
12067810.0
12955180.0
13748960.0
14444540.0
15037710.0
15525270.0
15905110.0
16175760.0
16336140.0
16385640.0
16324170.0
16152220.0
15870740.0
15481120.0
14985150.0
14385150.0
13684470.0
12887430.0
11998690.0
11022640.0
9963044.0
8822276.0
7600649.0
6295597.0
4897725.0
3377473.0
1623211.0
1784693.0
3537547.0
5110280.0
6568932.0
7931478.0
9205455.0
10393220.0
11494620.0
12507430.0
13427730.0
14250930.0
14972220.0
15587110.0
16092300.0
16485750.0
16766080.0
16932190.0
16983390.0
16919670.0
16741520.0
16449900.0
16046240.0
15532310.0
14910360.0
14183790.0
13357220.0
12435520.0
11423210.0
10324170.0
9140711.0
7872953.0
6518516.0
5069814.0
3508883.0
1769998.0
1922990.0
3626146.0
5223440.0
6715641.0
8111170.0
9415979.0
10632160.0
11759730.0
12796550.0
13738630.0
14581240.0
15319490.0
15948730.0
16465520.0
16867890.0
17154570.0
17324450.0
17376770.0
17311550.0
17129320.0
16831050.0
16418160.0
15892460.0
15256050.0
14512400.0
13666280.0
12722760.0
11686450.0
10561290.0
9349521.0
8051136.0
6663957.0
5181964.0
3596673.0
1907112.0
1779248.0
3527022.0
5092983.0
6545985.0
7903605.0
9173076.0
10356680.0
11454230.0
12463490.0
13380570.0
14200900.0
14919660.0
15532380.0
16035790.0
16427880.0
16707220.0
16872750.0
16923800.0
16860300.0
16682770.0
16392180.0
15989940.0
15477790.0
14858010.0
14133990.0
13310320.0
12391860.0
11383100.0
10287900.0
9108594.0
7845298.0
6495735.0
5052644.0
3498444.0
1764597.0
1973166.0
3662072.0
5276170.0
6785027.0
8195835.0
9514734.0
10743940.0
11883540.0
12931420.0
13883530.0
14735100.0
15481210.0
16117090.0
16639310.0
17045880.0
17335560.0
17507220.0
17560080.0
17494170.0
17310030.0
17008630.0
16591420.0
16060180.0
15417040.0
14665490.0
13810380.0
12856830.0
11809480.0
10672320.0
9447570.0
8135157.0
6732796.0
5234266.0
3632298.0
1956869.0
1731129.0
3488323.0
5042449.0
6480442.0
7823499.0
9079394.0
10250460.0
11336460.0
12335100.0
13242560.0
14054280.0
14765520.0
15371900.0
15870160.0
16258280.0
16534800.0
16698650.0
16749190.0
16686360.0
16510640.0
16223000.0
15824860.0
15317960.0
14704600.0
13988140.0
13173110.0
12264280.0
11266120.0
10182460.0
9015638.0
7765845.0
6430747.0
5002554.0
3460090.0
1716891.0
1876074.0
3605797.0
5202423.0
6689054.0
8078262.0
9377013.0
10587650.0
11710140.0
12742330.0
13680210.0
14519100.0
15254130.0
15880630.0
16395250.0
16795980.0
17081490.0
17250680.0
17302810.0
17237880.0
17056400.0
16759360.0
16348190.0
15824660.0
15190980.0
14450600.0
13608250.0
12668950.0
11637290.0
10517190.0
9310948.0
8018555.0
6637640.0
5161167.0
3576531.0
1860601.0
1806169.0
3545503.0
5115962.0
6575652.0
7939935.0
9215641.0
10405000.0
11507860.0
12521990.0
13443490.0
14267760.0
14989950.0
15605550.0
16111310.0
16505200.0
16785840.0
16952120.0
17003400.0
16939620.0
16761260.0
16469320.0
16065210.0
15550670.0
14927960.0
14200480.0
13372860.0
12449980.0
11436360.0
10335870.0
9150834.0
7881327.0
6525139.0
5075410.0
3516756.0
1791286.0
2011366.0
3672584.0
5283851.0
6794283.0
8207617.0
9529050.0
10760540.0
11902210.0
12951950.0
13905750.0
14758790.0
15506170.0
16143110.0
16666150.0
17073330.0
17363450.0
17535350.0
17588280.0
17522250.0
17337830.0
17035980.0
16618130.0
16086090.0
15441890.0
14689050.0
13832430.0
12877180.0
11827940.0
10688710.0
9461691.0
8146786.0
6741921.0
5241837.0
3642690.0
1994737.0
1938576.0
3642239.0
5249674.0
6750476.0
8153527.0
9465201.0
10687750.0
11821210.0
12863450.0
13810450.0
14657480.0
15399600.0
16032120.0
16551600.0
16956070.0
17244250.0
17415020.0
17467610.0
17402060.0
17218880.0
16919040.0
16504000.0
15975540.0
15335800.0
14588260.0
13737730.0
12789290.0
11747570.0
10616530.0
9398424.0
8093193.0
6698536.0
5208000.0
3612642.0
1922571.0
1828486.0
3565128.0
5143808.0
6612126.0
7984430.0
9267560.0
10463770.0
11572950.0
12592900.0
13519670.0
14348660.0
15074990.0
15694090.0
16202690.0
16598790.0
16880990.0
17048210.0
17099760.0
17035610.0
16856250.0
16562670.0
16156290.0
15638850.0
15012610.0
14280970.0
13448610.0
12520450.0
11501020.0
10394220.0
9202353.0
7925470.0
6561322.0
5103028.0
3536212.0
1813414.0
1604518.0
3373902.0
4897906.0
6294408.0
7596231.0
8813491.0
9948856.0
11001930.0
11970360.0
12850400.0
13637630.0
14327510.0
14915850.0
15399510.0
15776340.0
16044850.0
16203970.0
16253070.0
16192110.0
16021530.0
15742290.0
15355780.0
14863800.0
14268680.0
13573750.0
12783270.0
11901860.0
10933870.0
9883063.0
8751804.0
7540452.0
6246323.0
4859311.0
3346703.0
1591378.0
2020423.0
3699011.0
5333978.0
6861456.0
8288907.0
9623086.0
10866450.0
12019130.0
13079040.0
14042060.0
14903410.0
15658070.0
16301210.0
16829370.0
17240580.0
17533560.0
17707180.0
17760650.0
17693990.0
17507750.0
17202910.0
16780940.0
16243620.0
15593120.0
14832970.0
13968070.0
13003610.0
11944260.0
10794030.0
9555191.0
8227554.0
6808645.0
5291619.0
3668943.0
2003735.0
2024234.0
3695169.0
5324635.0
6848717.0
8273546.0
9605383.0
10846580.0
11997250.0
13055310.0
14016630.0
14876490.0
15629810.0
16271750.0
16798930.0
17209420.0
17501860.0
17675150.0
17728550.0
17662020.0
17476110.0
17171840.0
16750650.0
16214270.0
15564920.0
14806110.0
13942770.0
12980030.0
11922540.0
10774320.0
9537657.0
8212316.0
6795984.0
5282327.0
3665129.0
2007510.0
1794167.0
3543499.0
5117358.0
6578020.0
7942621.0
9218531.0
10408080.0
11511120.0
12525440.0
13447110.0
14271540.0
14993890.0
15609670.0
16115570.0
16509580.0
16790300.0
16956650.0
17007930.0
16944110.0
16765710.0
16473680.0
16069450.0
15554770.0
14931910.0
14204280.0
13376480.0
12453420.0
11439610.0
10338930.0
9153695.0
7884007.0
6527521.0
5076824.0
3514780.0
1779390.0
2032535.0
3684143.0
5300366.0
6816033.0
8234197.0
9560031.0
10795650.0
11941140.0
12994400.0
13951380.0
14807350.0
15557200.0
16196150.0
16720850.0
17129410.0
17420470.0
17592910.0
17646080.0
17579880.0
17394840.0
17092000.0
16672810.0
16138940.0
15492580.0
14737230.0
13877810.0
12919460.0
11866760.0
10723720.0
9492617.0
8173225.0
6763491.0
5258196.0
3654169.0
2015727.0
1847955.0
3581492.0
5167130.0
6642702.0
8021752.0
9311135.0
10513110.0
11627590.0
12652410.0
13583610.0
14416520.0
15146310.0
15768390.0
16279400.0
16677330.0
16960840.0
17128850.0
17180610.0
17116130.0
16935940.0
16640980.0
16232690.0
15712850.0
15083660.0
14348540.0
13512180.0
12579560.0
11555250.0
10443150.0
9245533.0
7962474.0
6591658.0
5126166.0
3552430.0
1832719.0
1988900.0
3679693.0
5305963.0
6824655.0
8243958.0
9570601.0
10807000.0
11953250.0
13007270.0
13964930.0
14821500.0
15571990.0
16211580.0
16736850.0
17145820.0
17437200.0
17609880.0
17663050.0
17596770.0
17411540.0
17108370.0
16688710.0
16154330.0
15507420.0
14751470.0
13891370.0
12932270.0
11878810.0
10734990.0
9503089.0
8182950.0
6772137.0
5263834.0
3649788.0
1972476.0
1906100.0
3616182.0
5210932.0
6699459.0
8091299.0
9392621.0
10605620.0
11730280.0
12764440.0
13704090.0
14544590.0
15280960.0
15908550.0
16424020.0
16825440.0
17111420.0
17280870.0
17333110.0
17268080.0
17086290.0
16788760.0
16376910.0
15852450.0
15217620.0
14475870.0
13631960.0
12690920.0
11657300.0
10535050.0
9326465.0
8031477.0
6647915.0
5169560.0
3586812.0
1890366.0
1899142.0
3607496.0
5196179.0
6679774.0
8067408.0
9364945.0
10574400.0
11695760.0
12726870.0
13663770.0
14501740.0
15235930.0
15861740.0
16375730.0
16775940.0
17061090.0
17230040.0
17282090.0
17217210.0
17035970.0
16739320.0
16328670.0
15805820.0
15172890.0
14433320.0
13591840.0
12653500.0
11622880.0
10503920.0
9298849.0
8007706.0
6628371.0
5154925.0
3578178.0
1883461.0
1930113.0
3633015.0
5234345.0
6730091.0
8128754.0
9436428.0
10655270.0
11785290.0
12824370.0
13768500.0
14612950.0
15352820.0
15983420.0
16501330.0
16904570.0
17191870.0
17362120.0
17414550.0
17349190.0
17166570.0
16867650.0
16453870.0
15927020.0
15289230.0
14543950.0
13696000.0
12750430.0
11711860.0
10584250.0
9369835.0
8068593.0
6678299.0
5192786.0
3603488.0
1914177.0
1900427.0
3620426.0
5221421.0
6713758.0
8108528.0
9412469.0
10627890.0
11754790.0
12791020.0
13732560.0
14574710.0
15312590.0
15941510.0
16458090.0
16860320.0
17146900.0
17316730.0
17369040.0
17303860.0
17121700.0
16823530.0
16410810.0
15885300.0
15249180.0
14505920.0
13660290.0
12717320.0
11681620.0
10557120.0
9346116.0
8048569.0
6662134.0
5179998.0
3591027.0
1884746.0
1995650.0
3664006.0
5272541.0
6779597.0
8189590.0
9507841.0
10736460.0
11875510.0
12922850.0
13874460.0
14725640.0
15471300.0
16106720.0
16628540.0
17034880.0
17324350.0
17495860.0
17548740.0
17482910.0
17298880.0
16997700.0
16580790.0
16049850.0
15407080.0
14655940.0
13801330.0
12848340.0
11801560.0
10664950.0
9440816.0
8128969.0
6727354.0
5230609.0
3634206.0
1979152.0
1967444.0
3649645.0
5253459.0
6754638.0
8159016.0
9472101.0
10695900.0
11830480.0
12873730.0
13821640.0
14669440.0
15412230.0
16045300.0
16565190.0
16969940.0
17258330.0
17429210.0
17481830.0
17416210.0
17232890.0
16932840.0
16517500.0
15988650.0
15348370.0
14600150.0
13748810.0
12799450.0
11756710.0
10624550.0
9405190.0
8098581.0
6702613.0
5211712.0
3619957.0
1951188.0
2014398.0
3673978.0
5285599.0
6796550.0
8210402.0
9532322.0
10764260.0
11906340.0
12956460.0
13910600.0
14763950.0
15511580.0
16148750.0
16671970.0
17079290.0
17369520.0
17541480.0
17594430.0
17528370.0
17343880.0
17041930.0
16623940.0
16091710.0
15447290.0
14694180.0
13837250.0
12881660.0
11832040.0
10692400.0
9464935.0
8149546.0
6744166.0
5243569.0
3644070.0
1997742.0
1755164.0
3506268.0
5064652.0
6509048.0
7858505.0
9120392.0
10297000.0
11388100.0
12391430.0
13303130.0
14118650.0
14833200.0
15442350.0
15942870.0
16332730.0
16610490.0
16775080.0
16825850.0
16762730.0
16586220.0
16297280.0
15897350.0
15388140.0
14771960.0
14052170.0
13233330.0
12320250.0
11317420.0
10228660.0
9056326.0
7800563.0
6459099.0
5024551.0
3477872.0
1740718.0
1946931.0
3649965.0
5261859.0
6766610.0
8173160.0
9488040.0
10713560.0
11849760.0
12894540.0
13843830.0
14692910.0
15436840.0
16070880.0
16591610.0
16997060.0
17285930.0
17457120.0
17509840.0
17444120.0
17260500.0
16959940.0
16543900.0
16014160.0
15372870.0
14623520.0
13770930.0
12820200.0
11775960.0
10642180.0
9421111.0
8112685.0
6714549.0
5220090.0
3620307.0
1930857.0
1994319.0
3677264.0
5298880.0
6814906.0
8232234.0
9557128.0
10791910.0
11936670.0
12989290.0
13945690.0
14801150.0
15550610.0
16189300.0
16713820.0
17122250.0
17413220.0
17585640.0
17638770.0
17572590.0
17387610.0
17084870.0
16665800.0
16132130.0
15486080.0
14731150.0
13872210.0
12914410.0
11862350.0
10720030.0
9489754.0
8171322.0
6762443.0
5256785.0
3647375.0
1977845.0
2031766.0
3685915.0
5304241.0
6821262.0
8240502.0
9567308.0
10803820.0
11950150.0
13004180.0
13961860.0
14818450.0
15568860.0
16208290.0
16733390.0
17142260.0
17433540.0
17606120.0
17659330.0
17593070.0
17407890.0
17104820.0
16685310.0
16151030.0
15504200.0
14748290.0
13888240.0
12929180.0
11875720.0
10731840.0
9499844.0
8179490.0
6768692.0
5262051.0
3655931.0
2014968.0
1841439.0
3572568.0
5152108.0
6622680.0
7997431.0
9282908.0
10481260.0
11592380.0
12614110.0
13542500.0
14372880.0
15100460.0
15720670.0
16230150.0
16626870.0
16909530.0
17077020.0
17128620.0
17064340.0
16884680.0
16590620.0
16183570.0
15665320.0
15038030.0
14305130.0
13471290.0
12541470.0
11520240.0
10411480.0
9217480.0
7938319.0
6571780.0
5111255.0
3543571.0
1826253.0
2018711.0
3697410.0
5330716.0
6856972.0
8283430.0
9616719.0
10859270.0
12011210.0
13070430.0
14032820.0
14893640.0
15647800.0
16290490.0
16818290.0
17229260.0
17522040.0
17695550.0
17748990.0
17682390.0
17496270.0
17191630.0
16769950.0
16232950.0
15582860.0
14823210.0
13958890.0
12995070.0
11936410.0
10786930.0
9548912.0
8222135.0
6804190.0
5288375.0
3667358.0
2002037.0
1667051.0
3433703.0
4973003.0
6390804.0
7713960.0
8951265.0
10105140.0
11175280.0
12159360.0
13053600.0
13853490.0
14554440.0
15152160.0
15643400.0
16026070.0
16298730.0
16460300.0
16510130.0
16448170.0
16274930.0
15991350.0
15598810.0
15099120.0
14494570.0
13788490.0
12985270.0
12089620.0
11105980.0
10038140.0
8888438.0
7657181.0
6341887.0
4933737.0
3405956.0
1653362.0
1939935.0
3647128.0
5258392.0
6762061.0
8167519.0
9481373.0
10705970.0
11841330.0
12885340.0
13833930.0
14682410.0
15425800.0
16059340.0
16579690.0
16984890.0
17273560.0
17444620.0
17497330.0
17431670.0
17248170.0
16947830.0
16532090.0
16002680.0
15361830.0
14613030.0
13761100.0
12811090.0
11767630.0
10634690.0
9414560.0
8107119.0
6710039.0
5216649.0
3617503.0
1923921.0
1677348.0
3442485.0
4983778.0
6404614.0
7730840.0
8971038.0
10127590.0
11200180.0
12186520.0
13082800.0
13884520.0
14587060.0
15186130.0
15678460.0
16061970.0
16335230.0
16497150.0
16547080.0
16484990.0
16311370.0
16027160.0
15633760.0
15132960.0
14527040.0
13819360.0
13014300.0
12116600.0
11130700.0
10060400.0
8908044.0
7673916.0
6355572.0
4944413.0
3414655.0
1663568.0
1588640.0
3358131.0
4878351.0
6269382.0
7565679.0
8777746.0
9908302.0
10956940.0
11921300.0
12797640.0
13581570.0
14268570.0
14854500.0
15336200.0
15711510.0
15978940.0
16137420.0
16186330.0
16125610.0
15955720.0
15677610.0
15292670.0
14802690.0
14210030.0
13518000.0
12730830.0
11853110.0
10889180.0
9842796.0
8716326.0
7510150.0
6221519.0
4839935.0
3331075.0
1575637.0
1722249.0
3480868.0
5032417.0
6467342.0
7807509.0
9060755.0
10229350.0
11313050.0
12309590.0
13215120.0
14025100.0
14734850.0
15340000.0
15837270.0
16224580.0
16500540.0
16664060.0
16714470.0
16651750.0
16476390.0
16189350.0
15792020.0
15286200.0
14674130.0
13959180.0
13145840.0
12238880.0
11242800.0
10161420.0
8997053.0
7749949.0
6417759.0
4992618.0
3452691.0
1708082.0
1927622.0
3624526.0
5218563.0
6708925.0
8103110.0
9406752.0
10621840.0
11748380.0
12784250.0
13725460.0
14567280.0
15304830.0
15933480.0
16449780.0
16851760.0
17138180.0
17307880.0
17360150.0
17294980.0
17112920.0
16814950.0
16402470.0
15877280.0
15241480.0
14498520.0
13653180.0
12710520.0
11675140.0
10551000.0
9340326.0
8043114.0
6657272.0
5177111.0
3595054.0
1911698.0
1959505.0
3644440.0
5246027.0
6744878.0
8147090.0